 TITLE="RCM-CONDUCTANCES SETUP"
VARIABLES="I","J","COLAT","ALOCT","SINI","PEDLAM_QT","PEDPSI_QT","HALL_QT","SSCOND_QT","PWE","PWN","HWE","HWN","SW_eq","DENS","TEMP"
 ZONE T="RCM-IONOSPHERE-SETUP" I=         155 , J=          96 , F=POINT 
AUXDATA DAYNR="249"
AUXDATA F107_prvdy="134.9"
AUXDATA F107_81drv=" 84.3"
AUXDATA F107_365drv=" 76.2"
AUXDATA AP=" 11.0"
           1           1   1.000344      0.0000000E+00  0.9999619    
   1.847379       1.847238       2.882079       49.88960      -12.27403    
   34.06850       3.254641      -5.119061       50158.79       4343.757    
  1.5368789E-02
           2           1   1.908267      0.0000000E+00  0.9998613    
   2.001585       2.001030       3.135632       49.88960      -11.94707    
   32.53986       3.719227      -4.290135       50158.79       5322.577    
  1.5369463E-02
           3           1   2.805729      0.0000000E+00  0.9996999    
   2.159819       2.158522       3.392976       49.88960      -11.62604    
   31.30777       4.183277      -3.406930       50158.79       6427.993    
  1.5372701E-02
           4           1   3.690489      0.0000000E+00  0.9994804    
   2.389011       2.386529       3.657790       49.88960      -12.29102    
   32.42352       4.615323      -2.420958       50158.79       7640.306    
  1.5378365E-02
           5           1   4.559591      0.0000000E+00  0.9992060    
   2.563947       2.559877       3.923622       49.88960      -12.03699    
   31.55903       5.073561      -1.466942       50158.79       8943.490    
  1.5386356E-02
           6           1   5.409090      0.0000000E+00  0.9988810    
   2.965466       2.958833       4.388591       49.88960      -11.42579    
   30.38050       5.531309     -0.6787820       50158.79       11851.99    
  1.5396327E-02
           7           1   6.233689      0.0000000E+00  0.9985119    
   3.377920       3.367874       4.984648       49.88960      -10.26877    
   28.37826       5.970397     -2.9332966E-02   50158.79       16542.62    
  1.5407978E-02
           8           1   7.026394      0.0000000E+00  0.9981065    
   3.669124       3.655243       5.408621       49.88960      -9.643248    
   27.40971       6.341955      0.8186206       50158.79       19182.93    
  1.5421251E-02
           9           1   7.778345      0.0000000E+00  0.9976757    
   3.921237       3.903030       5.772876       49.88960      -9.190810    
   26.86395       6.684455       1.705525       50158.79       21582.22    
  1.5435368E-02
          10           1   8.479556      0.0000000E+00  0.9972332    
   4.154392       4.131435       6.104933       49.88960      -8.798826    
   26.47454       6.986511       2.577377       50158.79       23839.23    
  1.5450083E-02
          11           1   9.121400      0.0000000E+00  0.9967931    
   4.369840       4.341857       6.406343       49.88960      -8.481375    
   26.21653       7.253279       3.406487       50158.79       25890.38    
  1.5464601E-02
          12           1   9.700334      0.0000000E+00  0.9963673    
   4.564620       4.531517       6.677990       49.88960      -8.216861    
   26.06214       7.488781       4.172627       50158.79       27729.06    
  1.5478544E-02
          13           1   10.21990      0.0000000E+00  0.9959617    
   4.743403       4.705169       6.921977       49.88960      -7.997008    
   25.94081       7.693897       4.876216       50158.79       29399.77    
  1.5491989E-02
          14           1   10.68875      0.0000000E+00  0.9955763    
   4.902862       4.859580       7.142212       49.88960      -7.778904    
   25.84878       7.875715       5.520788       50158.79       30786.69    
  1.5503725E-02
          15           1   11.11684      0.0000000E+00  0.9952083    
   5.052520       5.004216       7.343471       49.88960      -7.603900    
   25.79093       8.037433       6.118515       50158.79       32134.29    
  1.5515645E-02
          16           1   11.51306      0.0000000E+00  0.9948538    
   5.190822       5.137534       7.529781       49.88960      -7.424622    
   25.72354       8.184513       6.677509       50158.79       33333.86    
  1.5526689E-02
          17           1   11.88440      0.0000000E+00  0.9945095    
   5.319578       5.261324       7.704450       49.88960      -7.243319    
   25.65689       8.319654       7.206623       50158.79       34461.60    
  1.5537455E-02
          18           1   12.23617      0.0000000E+00  0.9941723    
   5.444311       5.381040       7.869923       49.88960      -7.108821    
   25.63750       8.444610       7.712742       50158.79       35528.72    
  1.5547991E-02
          19           1   12.57230      0.0000000E+00  0.9938402    
   5.563388       5.495059       8.027976       49.88960      -6.987566    
   25.63423       8.560077       8.202135       50158.79       36539.21    
  1.5558282E-02
          20           1   12.89577      0.0000000E+00  0.9935112    
   5.678504       5.605050       8.180092       49.88960      -6.877282    
   25.64109       8.668127       8.677346       50158.79       37502.86    
  1.5568390E-02
          21           1   13.20883      0.0000000E+00  0.9931841    
   5.789363       5.710713       8.326881       49.88960      -6.775536    
   25.65827       8.767062       9.139492       50158.79       38419.19    
  1.5578266E-02
          22           1   13.51321      0.0000000E+00  0.9928579    
   5.898607       5.814651       8.469986       49.88960      -6.678948    
   25.67624       8.864173       9.591630       50158.79       39309.98    
  1.5588123E-02
          23           1   13.81026      0.0000000E+00  0.9925315    
   6.005450       5.916082       8.609743       49.88960      -6.584807    
   25.69600       8.956781       10.03499       50158.79       40177.55    
  1.5597962E-02
          24           1   14.10107      0.0000000E+00  0.9922042    
   6.110783       6.015878       8.746720       49.88960      -6.499471    
   25.72359       9.044882       10.47157       50158.79       41029.58    
  1.5607862E-02
          25           1   14.38649      0.0000000E+00  0.9918757    
   6.213888       6.113331       8.881459       49.88960      -6.408120    
   25.74941       9.129297       10.90198       50158.79       41842.99    
  1.5617528E-02
          26           1   14.66725      0.0000000E+00  0.9915454    
   6.315043       6.208712       9.014507       49.88960      -6.313766    
   25.78192       9.210480       11.32694       50158.79       42641.52    
  1.5627224E-02
          27           1   14.94392      0.0000000E+00  0.9912127    
   6.415929       6.303667       9.145267       49.88960      -6.249719    
   25.83222       9.284867       11.75155       50158.79       43424.91    
  1.5636940E-02
          28           1   15.21699      0.0000000E+00  0.9908775    
   6.513309       6.395015       9.272175       49.88960      -6.153819    
   25.84570       9.359823       12.16234       50158.79       44153.62    
  1.5646156E-02
          29           1   15.48687      0.0000000E+00  0.9905395    
   6.612777       6.488249       9.399852       49.88960      -6.090487    
   25.90024       9.430696       12.57400       50158.79       44899.84    
  1.5655771E-02
          30           1   15.75390      0.0000000E+00  0.9901982    
   6.712635       6.581688       9.526488       49.88960      -6.043831    
   25.97104       9.498610       12.98227       50158.79       45518.27    
  1.5663875E-02
          31           1   16.01840      0.0000000E+00  0.9898537    
   6.807122       6.669688       9.651275       49.88960      -5.954629    
   25.98660       9.558683       13.39485       50158.79       46337.55    
  1.5674803E-02
          32           1   16.28061      0.0000000E+00  0.9895056    
   6.901103       6.757019       9.774671       49.88960      -5.876790    
   26.00866       9.615249       13.80473       50158.79       47018.88    
  1.5684057E-02
          33           1   16.54077      0.0000000E+00  0.9891538    
   6.996244       6.845302       9.897184       49.88960      -5.811177    
   26.05628       9.674397       14.20375       50158.79       47707.74    
  1.5693562E-02
          34           1   16.79906      0.0000000E+00  0.9887982    
   7.092890       6.934874       10.01924       49.88960      -5.767113    
   26.13415       9.734695       14.59474       50158.79       48413.26    
  1.5703455E-02
          35           1   17.05565      0.0000000E+00  0.9884384    
   7.189719       7.024431       10.14032       49.88960      -5.724873    
   26.21931       9.794175       14.97934       50158.79       48936.84    
  1.5710898E-02
          36           1   17.31071      0.0000000E+00  0.9880745    
   7.284536       7.111828       10.26042       49.88960      -5.658956    
   26.27773       9.850311       15.36261       50158.79       49586.17    
  1.5720246E-02
          37           1   17.56437      0.0000000E+00  0.9877063    
   7.374872       7.194658       10.37906       49.88960      -5.545737    
   26.23160       9.892178       15.76217       50158.79       50318.92    
  1.5730955E-02
          38           1   17.81676      0.0000000E+00  0.9873335    
   7.454734       7.267080       10.49692       49.88960      -5.477848    
   26.33706       9.929956       16.16289       50158.79       50884.57    
  1.5739333E-02
          39           1   18.06798      0.0000000E+00  0.9869563    
   7.548315       7.352684       10.61668       49.88960      -5.434354    
   26.40722       9.970582       16.55367       50158.79       51515.68    
  1.5748795E-02
          40           1   18.31813      0.0000000E+00  0.9865744    
   7.644397       7.440513       10.73645       49.88960      -5.387702    
   26.46674       10.01115       16.93814       50158.79       52129.88    
  1.5758116E-02
          41           1   18.56731      0.0000000E+00  0.9861878    
   7.733844       7.521677       10.85497       49.88960      -5.290200    
   26.50060       10.05032       17.31864       50158.79       52753.99    
  1.5767699E-02
          42           1   18.81559      0.0000000E+00  0.9857962    
   7.826842       7.606079       10.97309       49.88960      -5.230580    
   26.55016       10.08646       17.69698       50158.79       53360.07    
  1.5777115E-02
          43           1   19.06306      0.0000000E+00  0.9853996    
   7.920507       7.690911       11.09086       49.88960      -5.183397    
   26.61008       10.11983       18.07310       50158.79       53953.54    
  1.5786434E-02
          44           1   19.30978      0.0000000E+00  0.9849981    
   8.014774       7.776105       11.20858       49.88960      -5.140909    
   26.67405       10.15077       18.44706       50158.79       54537.86    
  1.5795704E-02
          45           1   19.55581      0.0000000E+00  0.9845914    
   8.109173       7.861197       11.32628       49.88960      -5.097974    
   26.73813       10.17937       18.81877       50158.79       55114.73    
  1.5804943E-02
          46           1   19.80123      0.0000000E+00  0.9841794    
   8.203489       7.945974       11.44394       49.88960      -5.050145    
   26.79823       10.20561       19.18823       50158.79       55687.46    
  1.5814202E-02
          47           1   20.04608      0.0000000E+00  0.9837620    
   8.297844       8.030550       11.56156       49.88960      -5.000164    
   26.85637       10.22943       19.55551       50158.79       56255.56    
  1.5823470E-02
          48           1   20.29041      0.0000000E+00  0.9833391    
   8.392718       8.115387       11.67917       49.88960      -4.954236    
   26.91657       10.25090       19.92044       50158.79       56814.14    
  1.5832657E-02
          49           1   20.53429      0.0000000E+00  0.9829108    
   8.488059       8.200429       11.79676       49.88960      -4.911292    
   26.97987       10.27058       20.28209       50158.79       57370.71    
  1.5841885E-02
          50           1   20.77774      0.0000000E+00  0.9824767    
   8.583559       8.285370       11.91437       49.88960      -4.869560    
   27.04585       10.28848       20.64047       50158.79       57924.31    
  1.5851134E-02
          51           1   21.02083      0.0000000E+00  0.9820369    
   8.679201       8.370191       12.03201       49.88960      -4.828819    
   27.11272       10.30412       20.99638       50158.79       58472.82    
  1.5860366E-02
          52           1   21.26359      0.0000000E+00  0.9815912    
   8.774964       8.454864       12.14976       49.88960      -4.788315    
   27.18033       10.31754       21.34963       50158.79       59017.06    
  1.5869586E-02
          53           1   21.50606      0.0000000E+00  0.9811397    
   8.870732       8.539278       12.26758       49.88960      -4.747931    
   27.25241       10.32971       21.69880       50158.79       59561.36    
  1.5878864E-02
          54           1   21.74828      0.0000000E+00  0.9806819    
   8.967228       8.624114       12.38558       49.88960      -4.712166    
   27.32634       10.33944       22.04560       50158.79       60097.29    
  1.5888058E-02
          55           1   21.99029      0.0000000E+00  0.9802182    
   9.063710       8.708664       12.50380       49.88960      -4.673690    
   27.39939       10.34675       22.38998       50158.79       60629.33    
  1.5897233E-02
          56           1   22.23212      0.0000000E+00  0.9797481    
   9.160544       8.793264       12.62229       49.88960      -4.633670    
   27.47130       10.35177       22.73173       50158.79       61159.33    
  1.5906423E-02
          57           1   22.47381      0.0000000E+00  0.9792715    
   9.314616       8.932463       12.74253       49.88960      -5.021856    
   27.69578       10.34480       23.07442       50158.79       61653.77    
  1.5915032E-02
          58           1   22.71541      0.0000000E+00  0.9787886    
   9.497647       9.099004       12.87401       49.88960      -5.113804    
   27.92730       10.34371       23.41532       50158.79       62193.76    
  1.5924472E-02
          59           1   22.95693      0.0000000E+00  0.9782990    
   9.597815       9.185771       12.99391       49.88960      -5.071028    
   27.99463       10.34230       23.74841       50158.79       62708.18    
  1.5933506E-02
          60           1   23.19842      0.0000000E+00  0.9778027    
   9.699345       9.273525       13.11352       49.88960      -5.050869    
   28.07149       10.33744       24.07880       50158.79       63198.43    
  1.5942143E-02
          61           1   23.43991      0.0000000E+00  0.9772996    
   9.800265       9.360375       13.23248       49.88960      -5.038414    
   28.15351       10.33026       24.40488       50158.79       63684.72    
  1.5950736E-02
          62           1   23.68143      0.0000000E+00  0.9767895    
   9.901279       9.446986       13.35221       49.88960      -5.007109    
   28.22227       10.32282       24.72524       50158.79       64179.24    
  1.5959498E-02
          63           1   23.92303      0.0000000E+00  0.9762723    
   10.00220       9.533176       13.47315       49.88960      -4.966297    
   28.28913       10.31241       25.04523       50158.79       64667.92    
  1.5968172E-02
          64           1   24.16472      0.0000000E+00  0.9757477    
   10.10485       9.620659       13.59022       49.88960      -4.939552    
   28.36310       10.30034       25.37284       50158.79       65158.25    
  1.5976893E-02
          65           1   24.40655      0.0000000E+00  0.9752159    
   10.20840       9.708659       13.72034       49.88960      -4.910941    
   28.43498       10.27831       25.67804       50158.79       65646.05    
  1.5985580E-02
          66           1   24.64856      0.0000000E+00  0.9746763    
   10.31303       9.797318       13.85089       49.88960      -4.886075    
   28.50813       10.25401       25.98031       50158.79       66129.48    
  1.5994199E-02
          67           1   24.89078      0.0000000E+00  0.9741291    
   10.41809       9.886014       13.98186       49.88960      -4.860288    
   28.58180       10.22764       26.27935       50158.79       66610.48    
  1.6002782E-02
          68           1   25.13324      0.0000000E+00  0.9735740    
   10.52415       9.975279       14.11333       49.88960      -4.836951    
   28.65605       10.19917       26.57516       50158.79       67088.21    
  1.6011305E-02
          69           1   25.37600      0.0000000E+00  0.9730107    
   10.63303       10.06682       14.25086       49.88960      -4.819979    
   28.73610       10.15981       26.89024       50158.79       67558.62    
  1.6019696E-02
          70           1   25.61909      0.0000000E+00  0.9724392    
   10.74002       10.15617       14.38341       49.88960      -4.801689    
   28.80729       10.12525       27.18327       50158.79       68030.13    
  1.6028101E-02
          71           1   25.86255      0.0000000E+00  0.9718592    
   10.85079       10.24868       14.51665       49.88960      -4.787509    
   28.87594       10.08930       27.47015       50158.79       68499.34    
  1.6036456E-02
          72           1   26.10642      0.0000000E+00  0.9712706    
   10.96062       10.33988       14.65051       49.88960      -4.769560    
   28.95375       10.05152       27.75360       50158.79       68973.02    
  1.6044881E-02
          73           1   26.35076      0.0000000E+00  0.9706730    
   11.07094       10.43111       14.78502       49.88960      -4.752232    
   29.03338       10.01196       28.03319       50158.79       69436.95    
  1.6053112E-02
          74           1   26.59561      0.0000000E+00  0.9700663    
   11.18655       10.52686       14.92040       49.88960      -4.771976    
   29.13449       9.968018       28.31301       50158.79       69921.60    
  1.6061693E-02
          75           1   26.84102      0.0000000E+00  0.9694502    
   11.30025       10.62035       15.05561       49.88960      -4.780014    
   29.22498       9.920943       28.58904       50158.79       70400.98    
  1.6070155E-02
          76           1   27.08706      0.0000000E+00  0.9688244    
   11.41105       10.71065       15.19184       49.88960      -4.757030    
   29.30688       9.872693       28.86083       50158.79       70827.07    
  1.6077651E-02
          77           1   27.33378      0.0000000E+00  0.9681886    
   11.52370       10.80220       15.32922       49.88960      -4.734572    
   29.38625       9.822889       29.12818       50158.79       71250.61    
  1.6085077E-02
          78           1   27.58124      0.0000000E+00  0.9675427    
   11.63730       10.89413       15.46738       49.88960      -4.709922    
   29.46102       9.771197       29.39119       50158.79       71678.76    
  1.6092556E-02
          79           1   27.82952      0.0000000E+00  0.9668859    
   11.75302       10.98753       15.60674       49.88960      -4.689590    
   29.53602       9.718136       29.64943       50158.79       72126.69    
  1.6100343E-02
          80           1   28.07870      0.0000000E+00  0.9662182    
   11.87141       11.08288       15.74723       49.88960      -4.678911    
   29.61273       9.663117       29.90361       50158.79       72588.00    
  1.6108323E-02
          81           1   28.32886      0.0000000E+00  0.9655390    
   11.99260       11.18029       15.88885       49.88960      -4.679002    
   29.69122       9.605884       30.15398       50158.79       73056.98    
  1.6116386E-02
          82           1   28.58007      0.0000000E+00  0.9648480    
   12.10729       11.27106       16.03163       49.88960      -4.623741    
   29.75851       9.546542       30.40034       50158.79       73618.00    
  1.6125968E-02
          83           1   28.83246      0.0000000E+00  0.9641446    
   12.23694       11.37515       16.17594       49.88960      -4.610239    
   29.78490       9.490469       30.63082       50158.79       74001.65    
  1.6132474E-02
          84           1   29.08612      0.0000000E+00  0.9634284    
   12.36206       11.47439       16.32225       49.88960      -4.601300    
   29.86993       9.427464       30.86895       50158.79       74458.11    
  1.6140161E-02
          85           1   29.34118      0.0000000E+00  0.9626988    
   12.48928       11.57492       16.47024       49.88960      -4.599267    
   29.96365       9.362317       31.10347       50158.79       74938.29    
  1.6148178E-02
          86           1   29.59778      0.0000000E+00  0.9619549    
   12.61637       11.67465       16.61949       49.88960      -4.589264    
   30.06168       9.294916       31.33388       50158.79       75230.20    
  1.6153021E-02
          87           1   29.85606      0.0000000E+00  0.9611961    
   12.74311       11.77333       16.77102       49.88960      -4.560425    
   30.15504       9.225357       31.56096       50158.79       75680.97    
  1.6160438E-02
          88           1   30.11622      0.0000000E+00  0.9604217    
   12.86553       11.86730       16.92323       49.88960      -4.506160    
   30.24403       9.153193       31.78318       50158.79       76116.90    
  1.6167544E-02
          89           1   30.37843      0.0000000E+00  0.9596307    
   13.00389       11.97516       17.07680       49.88960      -4.545156    
   30.33746       9.076596       32.00130       50158.79       76615.20    
  1.6175579E-02
          90           1   30.64293      0.0000000E+00  0.9588219    
   13.14192       12.08188       17.23251       49.88960      -4.562531    
   30.42772       8.997065       32.21587       50158.79       77106.78    
  1.6183414E-02
          91           1   30.90997      0.0000000E+00  0.9579943    
   13.28111       12.18878       17.39075       49.88960      -4.573994    
   30.51943       8.915082       32.42673       50158.79       77554.77    
  1.6190462E-02
          92           1   31.17984      0.0000000E+00  0.9571465    
   13.42339       12.29756       17.55175       49.88960      -4.586320    
   30.61104       8.830415       32.63386       50158.79       77996.32    
  1.6197326E-02
          93           1   31.45291      0.0000000E+00  0.9562767    
   13.56930       12.40865       17.71579       49.88960      -4.599328    
   30.70082       8.742718       32.83718       50158.79       78439.20    
  1.6204121E-02
          94           1   31.72958      0.0000000E+00  0.9553832    
   13.71844       12.52160       17.88310       49.88960      -4.611073    
   30.79046       8.652148       33.03659       50158.79       78891.35    
  1.6210960E-02
          95           1   32.01034      0.0000000E+00  0.9544637    
   13.87339       12.63867       18.05409       49.88960      -4.634480    
   30.88379       8.558068       33.23227       50158.79       79302.78    
  1.6217096E-02
          96           1   32.29576      0.0000000E+00  0.9535154    
   14.03232       12.75807       18.22911       49.88960      -4.658484    
   30.97955       8.460506       33.42428       50158.79       79737.07    
  1.6223477E-02
          97           1   32.58657      0.0000000E+00  0.9525352    
   14.19516       12.87960       18.40864       49.88960      -4.680568    
   31.07743       8.359234       33.61264       50158.79       80187.75    
  1.6229989E-02
          98           1   32.88362      0.0000000E+00  0.9515191    
   14.36173       13.00294       18.59326       49.88960      -4.698139    
   31.17819       8.253850       33.79733       50158.79       80653.85    
  1.6236611E-02
          99           1   33.18800      0.0000000E+00  0.9504621    
   14.53006       13.12614       18.78352       49.88960      -4.701138    
   31.28311       8.144700       33.97776       50158.79       81154.02    
  1.6243570E-02
         100           1   33.50106      0.0000000E+00  0.9493582    
   14.71029       13.25811       18.98086       49.88960      -4.724704    
   31.38236       8.029428       34.15463       50158.79       81440.41    
  1.6250018E-02
         101           1   33.82453      0.0000000E+00  0.9481993    
   14.89720       13.39380       19.18629       49.88960      -4.745089    
   31.48483       7.908629       34.32779       50158.79       82176.78    
  1.6256573E-02
         102           1   34.16067      0.0000000E+00  0.9469751    
   15.08929       13.53150       19.40140       49.88960      -4.752769    
   31.59134       7.781597       34.49745       50158.79       82938.09    
  1.6263228E-02
         103           1   34.51243      0.0000000E+00  0.9456720    
   15.30371       13.68604       19.62881       49.88960      -4.799143    
   31.69810       7.645727       34.66347       50158.79       83709.44    
  1.6269837E-02
         104           1   34.88377      0.0000000E+00  0.9442714    
   15.53370       13.85060       19.87115       49.88960      -4.851336    
   31.80865       7.500250       34.82610       50158.79       84512.84    
  1.6276566E-02
         105           1   35.27998      0.0000000E+00  0.9427485    
   15.78317       14.02768       20.13236       49.88960      -4.910188    
   31.92430       7.343015       34.98517       50158.79       85357.84    
  1.6283458E-02
         106           1   35.70808      0.0000000E+00  0.9410692    
   16.05803       14.22117       20.41780       49.88960      -4.979905    
   32.04726       7.171045       35.14032       50158.79       86242.35    
  1.6290456E-02
         107           1   36.17693      0.0000000E+00  0.9391889    
   16.36510       14.43525       20.72891       49.88960      -5.062658    
   32.18009       6.977705       35.30051       50158.79       87176.78    
  1.6297588E-02
         108           1   36.69650      0.0000000E+00  0.9370540    
   16.71429       14.67632       21.10501       49.88960      -5.158181    
   32.31820       6.774873       35.40432       50158.79       88201.44    
  1.6305080E-02
         109           1   37.27544      0.0000000E+00  0.9346099    
   17.11425       14.94922       21.53003       49.88960      -5.273333    
   32.46435       6.546801       35.49242       50158.79       89323.91    
  1.6312864E-02
         110           1   37.91729      0.0000000E+00  0.9318179    
   17.57182       15.25734       22.00900       49.88960      -5.410658    
   32.61488       6.292439       35.55602       50158.79       90543.78    
  1.6320791E-02
         111           1   38.61849      0.0000000E+00  0.9286659    
   18.09135       15.60235       22.54226       49.88960      -5.579014    
   32.76566       6.014062       35.58458       50158.79       91808.03    
  1.6328385E-02
         112           1   39.37044      0.0000000E+00  0.9251631    
   18.66459       15.97552       23.11948       49.88960      -5.775899    
   32.86604       5.712741       35.56604       50158.79       93274.40    
  1.6336350E-02
         113           1   40.16315      0.0000000E+00  0.9213290    
   19.28178       16.36728       23.74616       49.88960      -5.964092    
   32.97942       5.401939       35.49496       50158.79       94619.33    
  1.6342826E-02
         114           1   40.98775      0.0000000E+00  0.9171798    
   19.95369       16.78542       24.41418       49.88960      -6.227220    
   33.16522       5.082866       35.36662       50158.79       95853.41    
  1.6348047E-02
         115           1   41.83724      0.0000000E+00  0.9127269    
   20.69727       17.24228       25.12246       49.88960      -6.548102    
   33.29838       4.762639       35.17453       50158.79       97309.53    
  1.6353302E-02
         116           1   42.70634      0.0000000E+00  0.9079763    
   21.49928       17.72446       25.87189       49.88960      -6.870918    
   33.32980       4.446872       34.92928       50158.79       98724.56    
  1.6357461E-02
         117           1   43.59111      0.0000000E+00  0.9029288    
   22.33187       18.20674       26.65218       49.88960      -7.187994    
   33.34125       4.145831       34.59779       50158.79       100066.5    
  1.6360553E-02
         118           1   44.48857      0.0000000E+00  0.8975810    
   23.17983       18.67487       27.46846       49.88960      -7.479884    
   33.31853       3.863140       34.19904       50158.79       101341.0    
  1.6362745E-02
         119           1   45.39650      0.0000000E+00  0.8919272    
   24.15918       19.21946       28.32531       49.88960      -7.926702    
   33.26905       3.596735       33.73361       50158.79       102679.5    
  1.6364312E-02
         120           1   46.31313      0.0000000E+00  0.8859587    
   25.20169       19.78138       29.22304       49.88960      -8.401624    
   33.16578       3.356181       33.20412       50158.79       103970.2    
  1.6365161E-02
         121           1   47.23714      0.0000000E+00  0.8796650    
   26.31627       20.36380       30.16281       49.88960      -8.912681    
   33.01184       3.145108       32.61309       50158.79       105213.4    
  1.6365431E-02
         122           1   48.16745      0.0000000E+00  0.8730338    
   27.51865       20.97438       31.14862       49.88960      -9.470194    
   32.80121       2.967968       31.96310       50158.79       106448.8    
  1.6365254E-02
         123           1   49.10320      0.0000000E+00  0.8660514    
   28.80186       21.60269       32.18374       49.88960      -10.06158    
   32.54107       2.830128       31.25744       50158.79       107662.9    
  1.6364742E-02
         124           1   50.04369      0.0000000E+00  0.8587026    
   30.16532       22.24301       33.24836       49.88960      -10.63332    
   32.17976       2.727560       30.47333       50158.79       108837.2    
  1.6364029E-02
         125           1   50.98832      0.0000000E+00  0.8509713    